 Gaussian 09, Revision D.01,
 Gaussian 09:  ES64L-G09RevD.01 24-Apr-2013

 --------------------------------------------------------
 #p MP2/Gen SCF=(MAXCYCLE=1000) field=x-8 density=current
 --------------------------------------------------------

 -----
 polar
 -----
 Symbolic Z-matrix:
 Charge = -1 Multiplicity = 1

                         Standard orientation:
 ---------------------------------------------------------------------
 Center     Atomic      Atomic             Coordinates (Angstroms)
 Number     Number       Type             X           Y           Z
 ---------------------------------------------------------------------
      1          6           0       -1.346377   -0.060108    0.000151
      2          6           0        0.202110    0.002068   -0.001243
      3          1           0       -1.702832   -1.094362    0.000614
      4          1           0       -1.731829    0.463772   -0.882006
      5          1           0       -1.730286    0.464027    0.882833
      6          8           0        0.813848   -1.110682    0.000321
      7          8           0        0.689970    1.175032    0.000318
 ---------------------------------------------------------------------

 SCF Done:  E(RHF) =  -227.304574228     A.U. after   13 cycles
 E2 =    -0.6814669077D+00 EUMP2 =    -0.22798604113540D+03

 The electronic state is 1-A.
 Alpha  occ. eigenvalues --  -20.28996 -20.28707 -11.14098 -11.05757  -1.15304
 Alpha  occ. eigenvalues --   -1.05496  -0.79426  -0.51273  -0.41610  -0.41095
 Alpha  occ. eigenvalues --   -0.41090  -0.35846  -0.31290  -0.20100  -0.19416
 Alpha  occ. eigenvalues --   -0.18641
 Alpha virt. eigenvalues --    0.14145   0.15311   0.15506   0.19459   0.22651
 Alpha virt. eigenvalues --    0.23147   0.23660   0.24347   0.24592   0.28528
 Alpha virt. eigenvalues --    0.29651   0.30709   0.31288   0.35883   0.37152

 Mulliken charges:
               1
     1  C    2.660893
     2  C   -0.737524
     3  H   -0.679576
     4  H   -0.650700
     5  H   -0.650358
     6  O   -0.446140
     7  O   -0.496596
 Sum of Mulliken charges =  -1.00000

 Dipole moment (field-independent basis, Debye):
    X=             -3.6342    Y=             -0.1931    Z=             -0.0013  Tot=              3.6393
 Quadrupole moment (field-independent basis, Debye-Ang):
   XX=            -33.6170   YY=            -36.9231   ZZ=            -26.4891
   XY=              0.1845   XZ=             -0.0023   YZ=              0.0004

 Normal termination of Gaussian 09 at Wed May 15 16:46:16 2019.
