 Gaussian 09, Revision D.01,
 Gaussian 09:  ES64L-G09RevD.01 24-Apr-2013

 --------------------------------------------------------
 #p MP2/Gen SCF=(MAXCYCLE=1000) field=y-8 density=current
 --------------------------------------------------------

 -----
 polar
 -----
 Symbolic Z-matrix:
 Charge = -1 Multiplicity = 1

                         Standard orientation:
 ---------------------------------------------------------------------
 Center     Atomic      Atomic             Coordinates (Angstroms)
 Number     Number       Type             X           Y           Z
 ---------------------------------------------------------------------
      1          6           0       -1.346377   -0.060108    0.000151
      2          6           0        0.202110    0.002068   -0.001243
      3          1           0       -1.702832   -1.094362    0.000614
      4          1           0       -1.731829    0.463772   -0.882006
      5          1           0       -1.730286    0.464027    0.882833
      6          8           0        0.813848   -1.110682    0.000321
      7          8           0        0.689970    1.175032    0.000318
 ---------------------------------------------------------------------

 SCF Done:  E(RHF) =  -227.305845388     A.U. after   13 cycles
 E2 =    -0.6813126613D+00 EUMP2 =    -0.22798715804901D+03

 The electronic state is 1-A.
 Alpha  occ. eigenvalues --  -20.29085 -20.28689 -11.14099 -11.05601  -1.15339
 Alpha  occ. eigenvalues --   -1.05532  -0.79292  -0.51247  -0.41554  -0.41095
 Alpha  occ. eigenvalues --   -0.40963  -0.35800  -0.31275  -0.20146  -0.19416
 Alpha  occ. eigenvalues --   -0.18696
 Alpha virt. eigenvalues --    0.14497   0.15820   0.15825   0.19494   0.22846
 Alpha virt. eigenvalues --    0.23343   0.23533   0.24268   0.24546   0.28474
 Alpha virt. eigenvalues --    0.29898   0.31038   0.31522   0.35899   0.37169

 Mulliken charges:
               1
     1  C    2.658193
     2  C   -0.739459
     3  H   -0.681278
     4  H   -0.646003
     5  H   -0.645670
     6  O   -0.451662
     7  O   -0.494121
 Sum of Mulliken charges =  -1.00000

 Dipole moment (field-independent basis, Debye):
    X=             -3.7420    Y=             -0.0860    Z=             -0.0013  Tot=              3.7430
 Quadrupole moment (field-independent basis, Debye-Ang):
   XX=            -33.5607   YY=            -36.9341   ZZ=            -26.4767
   XY=              0.1862   XZ=             -0.0023   YZ=              0.0004

 Normal termination of Gaussian 09 at Wed May 15 16:45:48 2019.
