 Gaussian 09, Revision D.01,
 Gaussian 09:  ES64L-G09RevD.01 24-Apr-2013

 --------------------------------------------------------
 #p MP2/Gen SCF=(MAXCYCLE=1000) field=x+8 density=current
 --------------------------------------------------------

 -----
 polar
 -----
 Symbolic Z-matrix:
 Charge = -1 Multiplicity = 1

                         Standard orientation:
 ---------------------------------------------------------------------
 Center     Atomic      Atomic             Coordinates (Angstroms)
 Number     Number       Type             X           Y           Z
 ---------------------------------------------------------------------
      1          6           0       -1.346377   -0.060108    0.000151
      2          6           0        0.202110    0.002068   -0.001243
      3          1           0       -1.702832   -1.094362    0.000614
      4          1           0       -1.731829    0.463772   -0.882006
      5          1           0       -1.730286    0.464027    0.882833
      6          8           0        0.813848   -1.110682    0.000321
      7          8           0        0.689970    1.175032    0.000318
 ---------------------------------------------------------------------

 SCF Done:  E(RHF) =  -227.307247335     A.U. after   13 cycles
 E2 =    -0.6811487508D+00 EUMP2 =    -0.22798839608550D+03

 The electronic state is 1-A.
 Alpha  occ. eigenvalues --  -20.29078 -20.28780 -11.14102 -11.05434  -1.15377
 Alpha  occ. eigenvalues --   -1.05575  -0.79150  -0.51221  -0.41490  -0.41086
 Alpha  occ. eigenvalues --   -0.40852  -0.35738  -0.31263  -0.20176  -0.19441
 Alpha  occ. eigenvalues --   -0.18763
 Alpha virt. eigenvalues --    0.15045   0.16079   0.16319   0.19504   0.22888
 Alpha virt. eigenvalues --    0.23592   0.23641   0.24244   0.24255   0.28427
 Alpha virt. eigenvalues --    0.30232   0.31243   0.31870   0.35930   0.37210

 Mulliken charges:
               1
     1  C    2.656723
     2  C   -0.742621
     3  H   -0.675309
     4  H   -0.645204
     5  H   -0.644875
     6  O   -0.449833
     7  O   -0.498881
 Sum of Mulliken charges =  -1.00000

 Dipole moment (field-independent basis, Debye):
    X=             -3.8477    Y=             -0.1912    Z=             -0.0013  Tot=              3.8524
 Quadrupole moment (field-independent basis, Debye-Ang):
   XX=            -33.5027   YY=            -36.9366   ZZ=            -26.4764
   XY=              0.1877   XZ=             -0.0023   YZ=              0.0004

 Normal termination of Gaussian 09 at Wed May 15 16:42:46 2019.
