 Gaussian 09, Revision D.01,
 Gaussian 09:  ES64L-G09RevD.01 24-Apr-2013

 --------------------------------------------------------
 #p MP2/Gen SCF=(MAXCYCLE=1000) field=y+8 density=current
 --------------------------------------------------------

 -----
 polar
 -----
 Symbolic Z-matrix:
 Charge = -1 Multiplicity = 1

                         Standard orientation:
 ---------------------------------------------------------------------
 Center     Atomic      Atomic             Coordinates (Angstroms)
 Number     Number       Type             X           Y           Z
 ---------------------------------------------------------------------
      1          6           0       -1.346377   -0.060108    0.000151
      2          6           0        0.202110    0.002068   -0.001243
      3          1           0       -1.702832   -1.094362    0.000614
      4          1           0       -1.731829    0.463772   -0.882006
      5          1           0       -1.730286    0.464027    0.882833
      6          8           0        0.813848   -1.110682    0.000321
      7          8           0        0.689970    1.175032    0.000318
 ---------------------------------------------------------------------

 SCF Done:  E(RHF) =  -227.305976930     A.U. after   13 cycles
 E2 =    -0.6813020572D+00 EUMP2 =    -0.22798727898766D+03

 The electronic state is 1-A.
 Alpha  occ. eigenvalues --  -20.28989 -20.28797 -11.14100 -11.05590  -1.15342
 Alpha  occ. eigenvalues --   -1.05539  -0.79284  -0.51246  -0.41544  -0.41084
 Alpha  occ. eigenvalues --   -0.40977  -0.35787  -0.31280  -0.20135  -0.19436
 Alpha  occ. eigenvalues --   -0.18707
 Alpha virt. eigenvalues --    0.14561   0.15566   0.16131   0.19495   0.22779
 Alpha virt. eigenvalues --    0.23471   0.23611   0.24289   0.24305   0.28490
 Alpha virt. eigenvalues --    0.29943   0.30915   0.31686   0.35910   0.37193

 Mulliken charges:
               1
     1  C    2.659413
     2  C   -0.740697
     3  H   -0.673652
     4  H   -0.649879
     5  H   -0.649541
     6  O   -0.444320
     7  O   -0.501323
 Sum of Mulliken charges =  -1.00000

 Dipole moment (field-independent basis, Debye):
    X=             -3.7400    Y=             -0.2983    Z=             -0.0013  Tot=              3.7519
 Quadrupole moment (field-independent basis, Debye-Ang):
   XX=            -33.5550   YY=            -36.9274   ZZ=            -26.4885
   XY=              0.1861   XZ=             -0.0023   YZ=              0.0004

 Normal termination of Gaussian 09 at Wed May 15 16:43:56 2019.
