 Gaussian 09, Revision D.01,
 Gaussian 09:  ES64L-G09RevD.01 24-Apr-2013

 --------------------------------------------------------
 #p MP2/Gen SCF=(MAXCYCLE=1000) field=z+8 density=current
 --------------------------------------------------------

 -----
 polar
 -----
 Symbolic Z-matrix:
 Charge = -1 Multiplicity = 1

                         Standard orientation:
 ---------------------------------------------------------------------
 Center     Atomic      Atomic             Coordinates (Angstroms)
 Number     Number       Type             X           Y           Z
 ---------------------------------------------------------------------
      1          6           0       -1.346377   -0.060108    0.000151
      2          6           0        0.202110    0.002068   -0.001243
      3          1           0       -1.702832   -1.094362    0.000614
      4          1           0       -1.731829    0.463772   -0.882006
      5          1           0       -1.730286    0.464027    0.882833
      6          8           0        0.813848   -1.110682    0.000321
      7          8           0        0.689970    1.175032    0.000318
 ---------------------------------------------------------------------

 SCF Done:  E(RHF) =  -227.305908207     A.U. after   13 cycles
 E2 =    -0.6813053118D+00 EUMP2 =    -0.22798721351881D+03

 The electronic state is 1-A.
 Alpha  occ. eigenvalues --  -20.29036 -20.28743 -11.14100 -11.05595  -1.15340
 Alpha  occ. eigenvalues --   -1.05536  -0.79288  -0.51246  -0.41548  -0.41091
 Alpha  occ. eigenvalues --   -0.40970  -0.35794  -0.31277  -0.20138  -0.19429
 Alpha  occ. eigenvalues --   -0.18702
 Alpha virt. eigenvalues --    0.14501   0.15703   0.15998   0.19490   0.22801
 Alpha virt. eigenvalues --    0.23399   0.23588   0.24299   0.24424   0.28467
 Alpha virt. eigenvalues --    0.29896   0.31014   0.31591   0.35904   0.37182

 Mulliken charges:
               1
     1  C    2.658822
     2  C   -0.740136
     3  H   -0.677422
     4  H   -0.644372
     5  H   -0.651189
     6  O   -0.447981
     7  O   -0.497721
 Sum of Mulliken charges =  -1.00000

 Dipole moment (field-independent basis, Debye):
    X=             -3.7411    Y=             -0.1921    Z=             -0.0731  Tot=              3.7468
 Quadrupole moment (field-independent basis, Debye-Ang):
   XX=            -33.5578   YY=            -36.9299   ZZ=            -26.4829
   XY=              0.1862   XZ=              0.0226   YZ=             -0.0046

 Normal termination of Gaussian 09 at Wed May 15 16:44:26 2019.
