                               Psi4 1.1 release

  ==> Input File <==

--------------------------------------------------------------------------
molecule {
-1 1

    C            0.613146075611     1.296817574710    -0.001408652073
    C           -0.054498764942    -0.101727893662    -0.001088564526
    H           -0.135232499598     2.094735817787    -0.000936517573
    H            1.255589748430     1.392531005997    -0.884205440087
    H            1.256637717162     1.392473067087     0.880634402951
    O           -1.324128058114    -0.123476765848     0.001602292852
    O            0.755237071679    -1.080593442882     0.000555231991

symmetry c1
}

set {
    basis        Sadlej
    e_convergence   6
    d_convergence   8
    scf_type df
    df_basis_scf def2-tzvpp-jkfit
    df_basis_mp2 def2-tzvppd-ri

}

set perturb_h true
set perturb_with dipole
set perturb_dipole [0,0.0008, 0]
property('mp2', properties=['grid_esp','dipole'])--------------------------------------------------------------------------

*** tstart() called on rho
*** at Wed May 15 12:02:23 2019

   => Loading Basis Set <=

    Name: SADLEJ
    Role: ORBITAL
    Keyword: BASIS
    atoms 1-2 entry C          line    32 file /home/esther/psi4conda/share/psi4/basis/sadlej.gbs
    atoms 3-5 entry H          line    15 file /home/esther/psi4conda/share/psi4/basis/sadlej.gbs
    atoms 6-7 entry O          line    96 file /home/esther/psi4conda/share/psi4/basis/sadlej.gbs

         ---------------------------------------------------------
                                   SCF
            by Justin Turney, Rob Parrish, and Andy Simmonett
                              RHF Reference
                        4 Threads,    500 MiB Core
         ---------------------------------------------------------

  ==> Geometry <==

    Molecular point group: c1
    Full point group: C1

    Geometry (in Angstrom), charge = -1, multiplicity = 1:

       Center              X                  Y                   Z               Mass
    ------------   -----------------  -----------------  -----------------  -----------------
           C          0.613146075611     1.296817574710    -0.001408652073    12.000000000000
           C         -0.054498764942    -0.101727893662    -0.001088564526    12.000000000000
           H         -0.135232499598     2.094735817787    -0.000936517573     1.007825032070
           H          1.255589748430     1.392531005997    -0.884205440087     1.007825032070
           H          1.256637717162     1.392473067087     0.880634402951     1.007825032070
           O         -1.324128058114    -0.123476765848     0.001602292852    15.994914619560
           O          0.755237071679    -1.080593442882     0.000555231991    15.994914619560

  Running in c1 symmetry.

  Rotational constants: A =      0.37415  B =      0.33346  C =      0.18230 [cm^-1]
  Rotational constants: A =  11216.74399  B =   9996.99363  C =   5465.34178 [MHz]
  Nuclear repulsion =  111.127044642914100

  Charge       = -1
  Multiplicity = 1
  Electrons    = 32
  Nalpha       = 16
  Nbeta        = 16

  ==> Algorithm <==

  SCF Algorithm Type is DF.
  DIIS enabled.
  MOM disabled.
  Fractional occupation disabled.
  Guess Type is SAD.
  Energy threshold   = 1.00e-06
  Density threshold  = 1.00e-08
  Integral threshold = 0.00e+00

  ==> Primary Basis <==

  Basis Set: SADLEJ
    Blend: SADLEJ
    Number of shells: 55
    Number of basis function: 123
    Number of Cartesian functions: 131
    Spherical Harmonics?: true
    Max angular momentum: 2

   => Loading Basis Set <=

    Name: DEF2-TZVPP-JKFIT
    Role: JKFIT
    Keyword: DF_BASIS_SCF
    atoms 1-2 entry C          line   202 file /home/esther/psi4conda/share/psi4/basis/def2-tzvpp-jkfit.gbs
    atoms 3-5 entry H          line    22 file /home/esther/psi4conda/share/psi4/basis/def2-tzvpp-jkfit.gbs
    atoms 6-7 entry O          line   322 file /home/esther/psi4conda/share/psi4/basis/def2-tzvpp-jkfit.gbs

  ==> Pre-Iterations <==

   -------------------------------------------------------
    Irrep   Nso     Nmo     Nalpha   Nbeta   Ndocc  Nsocc
   -------------------------------------------------------
     A        123     123       0       0       0       0
   -------------------------------------------------------
    Total     123     123      16      16      16       0
   -------------------------------------------------------

  Perturbing V by 0.000800 mu(y).
  ==> Integral Setup <==

  ==> DFJK: Density-Fitted J/K Matrices <==

    J tasked:                  Yes
    K tasked:                  Yes
    wK tasked:                  No
    OpenMP threads:              4
    Integrals threads:           4
    Memory (MB):               375
    Algorithm:                Core
    Integral Cache:           NONE
    Schwarz Cutoff:          1E-12
    Fitting Condition:       1E-12

   => Auxiliary Basis Set <=

  Basis Set: DEF2-TZVPP-JKFIT
    Blend: DEF2-TZVPP-JKFIT
    Number of shells: 118
    Number of basis function: 358
    Number of Cartesian functions: 424
    Spherical Harmonics?: true
    Max angular momentum: 4

  Minimum eigenvalue in the overlap matrix is 7.4505979231E-05.
  Using Symmetric Orthogonalization.

  SCF Guess: Superposition of Atomic Densities via on-the-fly atomic UHF.

  ==> Iterations <==

                           Total Energy        Delta E     RMS |[F,P]|

   @DF-RHF iter   0:  -232.49774368371044   -2.32498e+02   5.46159e-02
   @DF-RHF iter   1:  -227.13251001556608    5.36523e+00   8.84973e-03
   @DF-RHF iter   2:  -227.25730431298305   -1.24794e-01   4.98516e-03 DIIS
   @DF-RHF iter   3:  -227.29958416702209   -4.22799e-02   1.38144e-03 DIIS
   @DF-RHF iter   4:  -227.30380698167218   -4.22281e-03   5.12300e-04 DIIS
   @DF-RHF iter   5:  -227.30462572478828   -8.18743e-04   1.39678e-04 DIIS
   @DF-RHF iter   6:  -227.30469951397629   -7.37892e-05   7.00094e-05 DIIS
   @DF-RHF iter   7:  -227.30471355064776   -1.40367e-05   1.79849e-05 DIIS
   @DF-RHF iter   8:  -227.30471552841942   -1.97777e-06   4.69920e-06 DIIS
   @DF-RHF iter   9:  -227.30471565897352   -1.30554e-07   1.65478e-06 DIIS
   @DF-RHF iter  10:  -227.30471567520846   -1.62349e-08   5.61317e-07 DIIS
   @DF-RHF iter  11:  -227.30471567773228   -2.52382e-09   2.03053e-07 DIIS
   @DF-RHF iter  12:  -227.30471567810352   -3.71244e-10   6.19272e-08 DIIS
   @DF-RHF iter  13:  -227.30471567813746   -3.39355e-11   1.24793e-08 DIIS
   @DF-RHF iter  14:  -227.30471567813862   -1.16529e-12   3.61381e-09 DIIS

  ==> Post-Iterations <==

    Orbital Energies (a.u.)
    -----------------------

    Doubly Occupied:

       1A    -20.290332     2A    -20.286963     3A    -11.141136
       4A    -11.057524     5A     -1.153198     6A     -1.055107
       7A     -0.794240     8A     -0.512817     9A     -0.416161
      10A     -0.411072    11A     -0.410839    12A     -0.358535
      13A     -0.312975    14A     -0.201181    15A     -0.194232
      16A     -0.186554

    Virtual:

      17A      0.141564    18A      0.153993    19A      0.154793
      20A      0.194515    21A      0.226780    22A      0.231310
      23A      0.236135    24A      0.243228    25A      0.246222
      26A      0.285124    27A      0.296604    28A      0.307618
      29A      0.312804    30A      0.358807    31A      0.371489
      32A      0.384497    33A      0.393162    34A      0.402464
      35A      0.424936    36A      0.438127    37A      0.445426
      38A      0.459679    39A      0.462574    40A      0.465141
      41A      0.499195    42A      0.517114    43A      0.536112
      44A      0.536708    45A      0.544393    46A      0.544588
      47A      0.554909    48A      0.563826    49A      0.565941
      50A      0.581347    51A      0.593152    52A      0.613019
      53A      0.642201    54A      0.648329    55A      0.683392
      56A      0.695107    57A      0.747125    58A      0.753110
      59A      0.780423    60A      0.846473    61A      0.876347
      62A      0.889814    63A      0.914998    64A      0.923371
      65A      0.941099    66A      0.957079    67A      0.969135
      68A      0.995545    69A      1.056596    70A      1.073557
      71A      1.088820    72A      1.106340    73A      1.133136
      74A      1.149085    75A      1.163369    76A      1.168952
      77A      1.213163    78A      1.227123    79A      1.239525
      80A      1.287852    81A      1.361604    82A      1.388216
      83A      1.389451    84A      1.447887    85A      1.468056
      86A      1.582274    87A      1.583931    88A      1.639166
      89A      1.643242    90A      1.734760    91A      1.763388
      92A      1.808015    93A      1.826573    94A      1.882527
      95A      1.890982    96A      1.960850    97A      2.009930
      98A      2.036997    99A      2.062050   100A      2.256100
     101A      2.295076   102A      2.453327   103A      2.473830
     104A      2.549939   105A      2.614712   106A      2.746740
     107A      2.778021   108A      2.837828   109A      2.903923
     110A      2.910735   111A      2.965315   112A      3.024764
     113A      3.124067   114A      3.179414   115A      3.475797
     116A      3.515964   117A      3.673304   118A      3.758968
     119A      3.895397   120A     22.913608   121A     23.178139
     122A     44.487162   123A     44.538016

    Final Occupation by Irrep:
              A
    DOCC [    16 ]

  Energy converged.

  @DF-RHF Final Energy:  -227.30471567813862 with 0.000000 0.000800 0.000000 perturbation

   => Energetics <=

    Nuclear Repulsion Energy =            111.1270446429141003
    One-Electron Energy =                -539.2977866678949113
    Two-Electron Energy =                 200.8660263468422045
    DFT Exchange-Correlation Energy =       0.0000000000000000
    Empirical Dispersion Energy =           0.0000000000000000
    PCM Polarization Energy =               0.0000000000000000
    EFP Energy =                            0.0000000000000000
    Total Energy =                       -227.3047156781386207

*** tstop() called on rho at Wed May 15 12:02:24 2019
Module time:
	user time   =       4.34 seconds =       0.07 minutes
	system time =       0.07 seconds =       0.00 minutes
	total time  =          1 seconds =       0.02 minutes
Total time:
	user time   =       4.34 seconds =       0.07 minutes
	system time =       0.07 seconds =       0.00 minutes
	total time  =          1 seconds =       0.02 minutes
   => Loading Basis Set <=

    Name: DEF2-TZVPPD-RI
    Role: RIFIT
    Keyword: DF_BASIS_MP2
    atoms 1-2 entry C          line   222 file /home/esther/psi4conda/share/psi4/basis/def2-tzvppd-ri.gbs
    atoms 3-5 entry H          line    21 file /home/esther/psi4conda/share/psi4/basis/def2-tzvppd-ri.gbs
    atoms 6-7 entry O          line   332 file /home/esther/psi4conda/share/psi4/basis/def2-tzvppd-ri.gbs

  //>>>>>>>>>>>>>>>>>>>>>>>>>>>>>>>>>>>//
  //               DFMP2               //
  //<<<<<<<<<<<<<<<<<<<<<<<<<<<<<<<<<<<//

	 --------------------------------------------------------
	                          DF-MP2
	      2nd-Order Density-Fitted Moller-Plesset Theory
	              RMP2 Wavefunction,   4 Threads

	        Rob Parrish, Justin Turney, Andy Simmonett,
	           Ed Hohenstein, and C. David Sherrill
	 --------------------------------------------------------

   => Auxiliary Basis Set <=

  Basis Set: DEF2-TZVPPD-RI
    Blend: DEF2-TZVPPD-RI
    Number of shells: 143
    Number of basis function: 485
    Number of Cartesian functions: 595
    Spherical Harmonics?: true
    Max angular momentum: 4

	 --------------------------------------------------------
	                 NBF =   123, NAUX =   485
	 --------------------------------------------------------
	   CLASS    FOCC     OCC    AOCC    AVIR     VIR    FVIR
	   PAIRS       0      16      16     107     107       0
	 --------------------------------------------------------

         ------------------------------------------------------------
                                     CPHF
                                  Rob Parrish
         ------------------------------------------------------------

  ==> Geometry <==

    Molecular point group: c1
    Full point group: C1

    Geometry (in Angstrom), charge = -1, multiplicity = 1:

       Center              X                  Y                   Z               Mass
    ------------   -----------------  -----------------  -----------------  -----------------
           C          0.613146075611     1.296817574710    -0.001408652073    12.000000000000
           C         -0.054498764942    -0.101727893662    -0.001088564526    12.000000000000
           H         -0.135232499598     2.094735817787    -0.000936517573     1.007825032070
           H          1.255589748430     1.392531005997    -0.884205440087     1.007825032070
           H          1.256637717162     1.392473067087     0.880634402951     1.007825032070
           O         -1.324128058114    -0.123476765848     0.001602292852    15.994914619560
           O          0.755237071679    -1.080593442882     0.000555231991    15.994914619560

  Nuclear repulsion =  111.123389585563814
  Reference energy  = -227.304715678138621

  ==> Basis Set <==

  Basis Set: SADLEJ
    Blend: SADLEJ
    Number of shells: 55
    Number of basis function: 123
    Number of Cartesian functions: 131
    Spherical Harmonics?: true
    Max angular momentum: 2

  ==> CGRSolver (by Rob Parrish) <==

   Number of roots    =         1
   Preconditioning    =    JACOBI
   Convergence cutoff =     1E-06
   Maximum iterations =       100

  ==> CPHFRHamiltonian (by Rob Parrish) <==

  ==> DFJK: Density-Fitted J/K Matrices <==

    J tasked:                  Yes
    K tasked:                  Yes
    wK tasked:                  No
    OpenMP threads:              4
    Integrals threads:           4
    Memory (MB):               375
    Algorithm:                Core
    Integral Cache:           NONE
    Schwarz Cutoff:          1E-12
    Fitting Condition:       1E-12

   => Auxiliary Basis Set <=

  Basis Set: DEF2-TZVPP-JKFIT
    Blend: DEF2-TZVPP-JKFIT
    Number of shells: 118
    Number of basis function: 358
    Number of Cartesian functions: 424
    Spherical Harmonics?: true
    Max angular momentum: 4

  ==> CPHF Iterations <==

  => Iterations <=

             Iter  Converged  Remaining    Residual
  CGR           1          0          1   1.638E-01
  CGR           2          0          1   3.118E-02
  CGR           3          0          1   7.478E-03
  CGR           4          0          1   2.829E-03
  CGR           5          0          1   6.600E-04
  CGR           6          0          1   2.501E-04
  CGR           7          0          1   7.447E-05
  CGR           8          0          1   1.644E-05
  CGR           9          0          1   6.091E-06
  CGR          10          0          1   1.344E-06
  CGR          11          1          0   2.658E-07

    CGRSolver converged.

	-----------------------------------------------------------
	 ==================> DF-MP2 Energies <====================
	-----------------------------------------------------------
	 Reference Energy          =    -227.3047156781386207 [Eh]
	 Singles Energy            =      -0.0000000000000089 [Eh]
	 Same-Spin Energy          =      -0.1871344568742146 [Eh]
	 Opposite-Spin Energy      =      -0.5542075148810905 [Eh]
	 Correlation Energy        =      -0.7413419717553140 [Eh]
	 Total Energy              =    -228.0460576498939247 [Eh]
	-----------------------------------------------------------
	 ================> DF-SCS-MP2 Energies <==================
	-----------------------------------------------------------
	 SCS Same-Spin Scale       =       0.3333333333333333 [-]
	 SCS Opposite-Spin Scale   =       1.2000000000000000 [-]
	 SCS Same-Spin Energy      =      -0.0623781522914049 [Eh]
	 SCS Opposite-Spin Energy  =      -0.6650490178573086 [Eh]
	 SCS Correlation Energy    =      -0.7274271701487224 [Eh]
	 SCS Total Energy          =    -228.0321428482873500 [Eh]
	-----------------------------------------------------------

Properties will be evaluated at   0.000000,   0.000000,   0.000000 Bohr

Properties computed using the MP2 density matrix

  Nuclear Dipole Moment: (a.u.)
     X:     2.2256      Y:     4.5688      Z:    -0.0042

  Electronic Dipole Moment: (a.u.)
     X:    -1.6774      Y:    -3.4203      Z:     0.0022

  Dipole Moment: (a.u.)
     X:     0.5482      Y:     1.1485      Z:    -0.0020     Total:     1.2727

  Dipole Moment: (Debye)
     X:     1.3934      Y:     2.9192      Z:    -0.0051     Total:     3.2348

 Electrostatic potential computed on the grid and written to grid_esp.dat

*** Psi4 exiting successfully. Buy a developer a beer!
