                               Psi4 1.1 release

  ==> Input File <==

--------------------------------------------------------------------------
molecule {
-1 1

    C            0.613146075611     1.296817574710    -0.001408652073
    C           -0.054498764942    -0.101727893662    -0.001088564526
    H           -0.135232499598     2.094735817787    -0.000936517573
    H            1.255589748430     1.392531005997    -0.884205440087
    H            1.256637717162     1.392473067087     0.880634402951
    O           -1.324128058114    -0.123476765848     0.001602292852
    O            0.755237071679    -1.080593442882     0.000555231991

symmetry c1
}

set {
    basis        Sadlej
    e_convergence   6
    d_convergence   8
    scf_type df
    df_basis_scf def2-tzvpp-jkfit
    df_basis_mp2 def2-tzvppd-ri

}

set perturb_h true
set perturb_with dipole
set perturb_dipole [0.0008, 0, 0]
grad, wfn = gradient('mp2', return_wfn=True)
fchk(wfn,'x.fchk')

set perturb_h true
set perturb_with dipole
set perturb_dipole [-0.0008, 0, 0]
grad, wfn = gradient('mp2', return_wfn=True)
fchk(wfn,'mx.fchk')

set perturb_h true
set perturb_with dipole
set perturb_dipole [0, 0.0008, 0]
grad, wfn = gradient('mp2', return_wfn=True)
fchk(wfn,'y.fchk')

set perturb_h true
set perturb_with dipole
set perturb_dipole [0, -0.0008, 0]
grad, wfn = gradient('mp2', return_wfn=True)
fchk(wfn,'my.fchk')

set perturb_h true
set perturb_with dipole
set perturb_dipole [0, 0, 0.0008]
grad, wfn = gradient('mp2', return_wfn=True)
fchk(wfn,'z.fchk')

set perturb_h true
set perturb_with dipole
set perturb_dipole [0, 0, -0.0008]
grad, wfn = gradient('mp2', return_wfn=True)
fchk(wfn,'mz.fchk')--------------------------------------------------------------------------
gradient() will perform analytic gradient computation.

*** tstart() called on rho
*** at Thu May 16 14:28:23 2019

*** tstart() called on rho
*** at Thu May 16 14:28:23 2019

   => Loading Basis Set <=

    Name: SADLEJ
    Role: ORBITAL
    Keyword: BASIS
    atoms 1-2 entry C          line    32 file /site/raid1/esther/polarizability_tutorial/electron_density/psi4_rimp2/sadlej.gbs
    atoms 3-5 entry H          line    15 file /site/raid1/esther/polarizability_tutorial/electron_density/psi4_rimp2/sadlej.gbs
    atoms 6-7 entry O          line    96 file /site/raid1/esther/polarizability_tutorial/electron_density/psi4_rimp2/sadlej.gbs

         ---------------------------------------------------------
                                   SCF
            by Justin Turney, Rob Parrish, and Andy Simmonett
                              RHF Reference
                        4 Threads,    500 MiB Core
         ---------------------------------------------------------

  ==> Geometry <==

    Molecular point group: c1
    Full point group: C1

    Geometry (in Angstrom), charge = -1, multiplicity = 1:

       Center              X                  Y                   Z               Mass
    ------------   -----------------  -----------------  -----------------  -----------------
           C          0.613146075611     1.296817574710    -0.001408652073    12.000000000000
           C         -0.054498764942    -0.101727893662    -0.001088564526    12.000000000000
           H         -0.135232499598     2.094735817787    -0.000936517573     1.007825032070
           H          1.255589748430     1.392531005997    -0.884205440087     1.007825032070
           H          1.256637717162     1.392473067087     0.880634402951     1.007825032070
           O         -1.324128058114    -0.123476765848     0.001602292852    15.994914619560
           O          0.755237071679    -1.080593442882     0.000555231991    15.994914619560

  Running in c1 symmetry.

  Rotational constants: A =      0.37415  B =      0.33346  C =      0.18230 [cm^-1]
  Rotational constants: A =  11216.74399  B =   9996.99363  C =   5465.34178 [MHz]
  Nuclear repulsion =  111.125170086945076

  Charge       = -1
  Multiplicity = 1
  Electrons    = 32
  Nalpha       = 16
  Nbeta        = 16

  ==> Algorithm <==

  SCF Algorithm Type is DF.
  DIIS enabled.
  MOM disabled.
  Fractional occupation disabled.
  Guess Type is SAD.
  Energy threshold   = 1.00e-06
  Density threshold  = 1.00e-08
  Integral threshold = 0.00e+00

  ==> Primary Basis <==

  Basis Set: SADLEJ
    Blend: SADLEJ
    Number of shells: 55
    Number of basis function: 123
    Number of Cartesian functions: 131
    Spherical Harmonics?: true
    Max angular momentum: 2

   => Loading Basis Set <=

    Name: DEF2-TZVPP-JKFIT
    Role: JKFIT
    Keyword: DF_BASIS_SCF
    atoms 1-2 entry C          line   202 file /home/esther/psi4conda/share/psi4/basis/def2-tzvpp-jkfit.gbs
    atoms 3-5 entry H          line    22 file /home/esther/psi4conda/share/psi4/basis/def2-tzvpp-jkfit.gbs
    atoms 6-7 entry O          line   322 file /home/esther/psi4conda/share/psi4/basis/def2-tzvpp-jkfit.gbs

  ==> Pre-Iterations <==

   -------------------------------------------------------
    Irrep   Nso     Nmo     Nalpha   Nbeta   Ndocc  Nsocc
   -------------------------------------------------------
     A        123     123       0       0       0       0
   -------------------------------------------------------
    Total     123     123      16      16      16       0
   -------------------------------------------------------

  Perturbing V by 0.000800 mu(x).
  ==> Integral Setup <==

  ==> DFJK: Density-Fitted J/K Matrices <==

    J tasked:                  Yes
    K tasked:                  Yes
    wK tasked:                  No
    OpenMP threads:              4
    Integrals threads:           4
    Memory (MB):               375
    Algorithm:                Core
    Integral Cache:           NONE
    Schwarz Cutoff:          1E-12
    Fitting Condition:       1E-12

   => Auxiliary Basis Set <=

  Basis Set: DEF2-TZVPP-JKFIT
    Blend: DEF2-TZVPP-JKFIT
    Number of shells: 118
    Number of basis function: 358
    Number of Cartesian functions: 424
    Spherical Harmonics?: true
    Max angular momentum: 4

  Minimum eigenvalue in the overlap matrix is 7.4505979231E-05.
  Using Symmetric Orthogonalization.

  SCF Guess: Superposition of Atomic Densities via on-the-fly atomic UHF.

  ==> Iterations <==

                           Total Energy        Delta E     RMS |[F,P]|

   @DF-RHF iter   0:  -232.49769126980766   -2.32498e+02   5.46168e-02
   @DF-RHF iter   1:  -227.13342874871296    5.36426e+00   8.98031e-03
   @DF-RHF iter   2:  -227.25819948452175   -1.24771e-01   5.04581e-03 DIIS
   @DF-RHF iter   3:  -227.30018980680234   -4.19903e-02   1.40298e-03 DIIS
   @DF-RHF iter   4:  -227.30439894532665   -4.20914e-03   5.11154e-04 DIIS
   @DF-RHF iter   5:  -227.30521358015744   -8.14635e-04   1.39517e-04 DIIS
   @DF-RHF iter   6:  -227.30528688507590   -7.33049e-05   6.95378e-05 DIIS
   @DF-RHF iter   7:  -227.30530075571917   -1.38706e-05   1.79949e-05 DIIS
   @DF-RHF iter   8:  -227.30530272410800   -1.96839e-06   4.63343e-06 DIIS
   @DF-RHF iter   9:  -227.30530285554079   -1.31433e-07   1.63663e-06 DIIS
   @DF-RHF iter  10:  -227.30530287199818   -1.64574e-08   5.66325e-07 DIIS
   @DF-RHF iter  11:  -227.30530287456202   -2.56384e-09   2.05139e-07 DIIS
   @DF-RHF iter  12:  -227.30530287494227   -3.80254e-10   6.36025e-08 DIIS
   @DF-RHF iter  13:  -227.30530287497709   -3.48166e-11   1.26347e-08 DIIS
   @DF-RHF iter  14:  -227.30530287497800   -9.09495e-13   3.76698e-09 DIIS

  ==> Post-Iterations <==

    Orbital Energies (a.u.)
    -----------------------

    Doubly Occupied:

       1A    -20.289799     2A    -20.287787     3A    -11.141085
       4A    -11.056715     5A     -1.153313     6A     -1.055255
       7A     -0.793542     8A     -0.512636     9A     -0.415770
      10A     -0.410920    11A     -0.410371    12A     -0.358171
      13A     -0.312898    14A     -0.201221    15A     -0.194348
      16A     -0.186816

    Virtual:

      17A      0.143506    18A      0.153945    19A      0.159029
      20A      0.194752    21A      0.227104    22A      0.233363
      23A      0.236281    24A      0.243237    25A      0.243827
      26A      0.285135    27A      0.298040    28A      0.307960
      29A      0.315359    30A      0.359025    31A      0.371829
      32A      0.384967    33A      0.392707    34A      0.402481
      35A      0.424444    36A      0.438803    37A      0.446445
      38A      0.460485    39A      0.462984    40A      0.464254
      41A      0.499498    42A      0.516446    43A      0.536130
      44A      0.537183    45A      0.544193    46A      0.545665
      47A      0.555101    48A      0.565174    49A      0.566269
      50A      0.581747    51A      0.594677    52A      0.614068
      53A      0.642641    54A      0.649244    55A      0.685083
      56A      0.695177    57A      0.747672    58A      0.753299
      59A      0.780647    60A      0.847063    61A      0.875769
      62A      0.889603    63A      0.915505    64A      0.923606
      65A      0.941526    66A      0.956385    67A      0.968328
      68A      0.996041    69A      1.057269    70A      1.073996
      71A      1.089265    72A      1.105529    73A      1.134082
      74A      1.148787    75A      1.163906    76A      1.169619
      77A      1.213736    78A      1.227429    79A      1.238844
      80A      1.288093    81A      1.361239    82A      1.388523
      83A      1.389684    84A      1.447956    85A      1.468984
      86A      1.582684    87A      1.583440    88A      1.640050
      89A      1.643223    90A      1.735615    91A      1.764123
      92A      1.807913    93A      1.826951    94A      1.882857
      95A      1.891242    96A      1.961811    97A      2.010349
      98A      2.036862    99A      2.062708   100A      2.256471
     101A      2.295503   102A      2.453999   103A      2.474012
     104A      2.550261   105A      2.615342   106A      2.747168
     107A      2.777718   108A      2.838299   109A      2.904483
     110A      2.910900   111A      2.965220   112A      3.024330
     113A      3.123887   114A      3.179337   115A      3.475619
     116A      3.515924   117A      3.673189   118A      3.758809
     119A      3.895216   120A     22.913845   121A     23.178765
     122A     44.486344   123A     44.538539

    Final Occupation by Irrep:
              A
    DOCC [    16 ]

  Energy converged.

  @DF-RHF Final Energy:  -227.30530287497800 with 0.000800 0.000000 0.000000 perturbation

   => Energetics <=

    Nuclear Repulsion Energy =            111.1251700869450758
    One-Electron Energy =                -539.2996489125813468
    Two-Electron Energy =                 200.8691759506582457
    DFT Exchange-Correlation Energy =       0.0000000000000000
    Empirical Dispersion Energy =           0.0000000000000000
    PCM Polarization Energy =               0.0000000000000000
    EFP Energy =                            0.0000000000000000
    Total Energy =                       -227.3053028749779969

Properties will be evaluated at   0.000000,   0.000000,   0.000000 Bohr

Properties computed using the SCF density matrix

  Nuclear Dipole Moment: (a.u.)
     X:     2.2256      Y:     4.5688      Z:    -0.0042

  Electronic Dipole Moment: (a.u.)
     X:    -1.6252      Y:    -3.2000      Z:     0.0014

  Dipole Moment: (a.u.)
     X:     0.6004      Y:     1.3688      Z:    -0.0029     Total:     1.4947

  Dipole Moment: (Debye)
     X:     1.5261      Y:     3.4791      Z:    -0.0073     Total:     3.7991

*** tstop() called on rho at Thu May 16 14:28:24 2019
Module time:
	user time   =       4.36 seconds =       0.07 minutes
	system time =       0.14 seconds =       0.00 minutes
	total time  =          1 seconds =       0.02 minutes
Total time:
	user time   =       4.36 seconds =       0.07 minutes
	system time =       0.14 seconds =       0.00 minutes
	total time  =          1 seconds =       0.02 minutes

  //>>>>>>>>>>>>>>>>>>>>>>>>>>>>>>>>>>>//
  //               DFMP2               //
  //<<<<<<<<<<<<<<<<<<<<<<<<<<<<<<<<<<<//

   => Loading Basis Set <=

    Name: DEF2-TZVPPD-RI
    Role: RIFIT
    Keyword: DF_BASIS_MP2
    atoms 1-2 entry C          line   222 file /home/esther/psi4conda/share/psi4/basis/def2-tzvppd-ri.gbs
    atoms 3-5 entry H          line    21 file /home/esther/psi4conda/share/psi4/basis/def2-tzvppd-ri.gbs
    atoms 6-7 entry O          line   332 file /home/esther/psi4conda/share/psi4/basis/def2-tzvppd-ri.gbs

	 --------------------------------------------------------
	                          DF-MP2
	      2nd-Order Density-Fitted Moller-Plesset Theory
	              RMP2 Wavefunction,   4 Threads

	        Rob Parrish, Justin Turney, Andy Simmonett,
	           Ed Hohenstein, and C. David Sherrill
	 --------------------------------------------------------

   => Auxiliary Basis Set <=

  Basis Set: DEF2-TZVPPD-RI
    Blend: DEF2-TZVPPD-RI
    Number of shells: 143
    Number of basis function: 485
    Number of Cartesian functions: 595
    Spherical Harmonics?: true
    Max angular momentum: 4

	 --------------------------------------------------------
	                 NBF =   123, NAUX =   485
	 --------------------------------------------------------
	   CLASS    FOCC     OCC    AOCC    AVIR     VIR    FVIR
	   PAIRS       0      16      16     107     107       0
	 --------------------------------------------------------

         ------------------------------------------------------------
                                     CPHF
                                  Rob Parrish
         ------------------------------------------------------------

  ==> Geometry <==

    Molecular point group: c1
    Full point group: C1

    Geometry (in Angstrom), charge = -1, multiplicity = 1:

       Center              X                  Y                   Z               Mass
    ------------   -----------------  -----------------  -----------------  -----------------
           C          0.613146075611     1.296817574710    -0.001408652073    12.000000000000
           C         -0.054498764942    -0.101727893662    -0.001088564526    12.000000000000
           H         -0.135232499598     2.094735817787    -0.000936517573     1.007825032070
           H          1.255589748430     1.392531005997    -0.884205440087     1.007825032070
           H          1.256637717162     1.392473067087     0.880634402951     1.007825032070
           O         -1.324128058114    -0.123476765848     0.001602292852    15.994914619560
           O          0.755237071679    -1.080593442882     0.000555231991    15.994914619560

  Nuclear repulsion =  111.123389585563814
  Reference energy  = -227.305302874977997

  ==> Basis Set <==

  Basis Set: SADLEJ
    Blend: SADLEJ
    Number of shells: 55
    Number of basis function: 123
    Number of Cartesian functions: 131
    Spherical Harmonics?: true
    Max angular momentum: 2

  ==> CGRSolver (by Rob Parrish) <==

   Number of roots    =         1
   Preconditioning    =    JACOBI
   Convergence cutoff =     1E-06
   Maximum iterations =       100

  ==> CPHFRHamiltonian (by Rob Parrish) <==

  ==> DFJK: Density-Fitted J/K Matrices <==

    J tasked:                  Yes
    K tasked:                  Yes
    wK tasked:                  No
    OpenMP threads:              4
    Integrals threads:           4
    Memory (MB):               375
    Algorithm:                Core
    Integral Cache:           NONE
    Schwarz Cutoff:          1E-12
    Fitting Condition:       1E-12

   => Auxiliary Basis Set <=

  Basis Set: DEF2-TZVPP-JKFIT
    Blend: DEF2-TZVPP-JKFIT
    Number of shells: 118
    Number of basis function: 358
    Number of Cartesian functions: 424
    Spherical Harmonics?: true
    Max angular momentum: 4

  ==> CPHF Iterations <==

  => Iterations <=

             Iter  Converged  Remaining    Residual
  CGR           1          0          1   1.637E-01
  CGR           2          0          1   3.117E-02
  CGR           3          0          1   7.567E-03
  CGR           4          0          1   2.920E-03
  CGR           5          0          1   8.867E-04
  CGR           6          0          1   3.853E-04
  CGR           7          0          1   7.732E-05
  CGR           8          0          1   1.704E-05
  CGR           9          0          1   6.514E-06
  CGR          10          0          1   1.716E-06
  CGR          11          1          0   4.830E-07

    CGRSolver converged.

  ==> DFCorrGrad: Density-Fitted Correlated Gradients <==

    OpenMP threads:              4
    Integrals threads:           4
    Memory (MB):               375
    Schwarz Cutoff:          0E+00
    Fitting Condition:       1E-12

   => Auxiliary Basis Set <=

  Basis Set: DEF2-TZVPP-JKFIT
    Blend: DEF2-TZVPP-JKFIT
    Number of shells: 118
    Number of basis function: 358
    Number of Cartesian functions: 424
    Spherical Harmonics?: true
    Max angular momentum: 4

	-----------------------------------------------------------
	 ==================> DF-MP2 Energies <====================
	-----------------------------------------------------------
	 Reference Energy          =    -227.3053028749779969 [Eh]
	 Singles Energy            =      -0.0000000000000091 [Eh]
	 Same-Spin Energy          =      -0.1871081561996449 [Eh]
	 Opposite-Spin Energy      =      -0.5541601479977787 [Eh]
	 Correlation Energy        =      -0.7412683041974327 [Eh]
	 Total Energy              =    -228.0465711791754302 [Eh]
	-----------------------------------------------------------
	 ================> DF-SCS-MP2 Energies <==================
	-----------------------------------------------------------
	 SCS Same-Spin Scale       =       0.3333333333333333 [-]
	 SCS Opposite-Spin Scale   =       1.2000000000000000 [-]
	 SCS Same-Spin Energy      =      -0.0623693853998816 [Eh]
	 SCS Opposite-Spin Energy  =      -0.6649921775973344 [Eh]
	 SCS Correlation Energy    =      -0.7273615629972252 [Eh]
	 SCS Total Energy          =    -228.0326644379752281 [Eh]
	-----------------------------------------------------------

  -Total Gradient:
     Atom            X                  Y                   Z
    ------   -----------------  -----------------  -----------------
       1        0.003671177602     0.003582872517     0.000153497318
       2        0.002197368352     0.003148697989    -0.000591406543
       3        0.003113738772    -0.004126509594     0.000008324060
       4       -0.003508930853    -0.000558328086     0.004502079025
       5       -0.003473883755    -0.000501518117    -0.004486559199
       6       -0.003786658891    -0.000071309957     0.000204147279
       7        0.000987188772    -0.001473904751     0.000209918060

*** tstop() called on rho at Thu May 16 14:28:28 2019
Module time:
	user time   =      17.02 seconds =       0.28 minutes
	system time =       0.55 seconds =       0.01 minutes
	total time  =          5 seconds =       0.08 minutes
Total time:
	user time   =      17.02 seconds =       0.28 minutes
	system time =       0.55 seconds =       0.01 minutes
	total time  =          5 seconds =       0.08 minutes
gradient() will perform analytic gradient computation.

*** tstart() called on rho
*** at Thu May 16 14:28:28 2019

*** tstart() called on rho
*** at Thu May 16 14:28:28 2019

   => Loading Basis Set <=

    Name: SADLEJ
    Role: ORBITAL
    Keyword: BASIS
    atoms 1-2 entry C          line    32 file /site/raid1/esther/polarizability_tutorial/electron_density/psi4_rimp2/sadlej.gbs
    atoms 3-5 entry H          line    15 file /site/raid1/esther/polarizability_tutorial/electron_density/psi4_rimp2/sadlej.gbs
    atoms 6-7 entry O          line    96 file /site/raid1/esther/polarizability_tutorial/electron_density/psi4_rimp2/sadlej.gbs

         ---------------------------------------------------------
                                   SCF
            by Justin Turney, Rob Parrish, and Andy Simmonett
                              RHF Reference
                        4 Threads,    500 MiB Core
         ---------------------------------------------------------

  ==> Geometry <==

    Molecular point group: c1
    Full point group: C1

    Geometry (in Angstrom), charge = -1, multiplicity = 1:

       Center              X                  Y                   Z               Mass
    ------------   -----------------  -----------------  -----------------  -----------------
           C          0.613146075611     1.296817574710    -0.001408652073    12.000000000000
           C         -0.054498764942    -0.101727893662    -0.001088564526    12.000000000000
           H         -0.135232499598     2.094735817787    -0.000936517573     1.007825032070
           H          1.255589748430     1.392531005997    -0.884205440087     1.007825032070
           H          1.256637717162     1.392473067087     0.880634402951     1.007825032070
           O         -1.324128058114    -0.123476765848     0.001602292852    15.994914619560
           O          0.755237071679    -1.080593442882     0.000555231991    15.994914619560

  Running in c1 symmetry.

  Rotational constants: A =      0.37415  B =      0.33346  C =      0.18230 [cm^-1]
  Rotational constants: A =  11216.74399  B =   9996.99363  C =   5465.34178 [MHz]
  Nuclear repulsion =  111.121609084182552

  Charge       = -1
  Multiplicity = 1
  Electrons    = 32
  Nalpha       = 16
  Nbeta        = 16

  ==> Algorithm <==

  SCF Algorithm Type is DF.
  DIIS enabled.
  MOM disabled.
  Fractional occupation disabled.
  Guess Type is SAD.
  Energy threshold   = 1.00e-06
  Density threshold  = 1.00e-08
  Integral threshold = 0.00e+00

  ==> Primary Basis <==

  Basis Set: SADLEJ
    Blend: SADLEJ
    Number of shells: 55
    Number of basis function: 123
    Number of Cartesian functions: 131
    Spherical Harmonics?: true
    Max angular momentum: 2

   => Loading Basis Set <=

    Name: DEF2-TZVPP-JKFIT
    Role: JKFIT
    Keyword: DF_BASIS_SCF
    atoms 1-2 entry C          line   202 file /home/esther/psi4conda/share/psi4/basis/def2-tzvpp-jkfit.gbs
    atoms 3-5 entry H          line    22 file /home/esther/psi4conda/share/psi4/basis/def2-tzvpp-jkfit.gbs
    atoms 6-7 entry O          line   322 file /home/esther/psi4conda/share/psi4/basis/def2-tzvpp-jkfit.gbs

  ==> Pre-Iterations <==

   -------------------------------------------------------
    Irrep   Nso     Nmo     Nalpha   Nbeta   Ndocc  Nsocc
   -------------------------------------------------------
     A        123     123       0       0       0       0
   -------------------------------------------------------
    Total     123     123      16      16      16       0
   -------------------------------------------------------

  Perturbing V by -0.000800 mu(x).
  ==> Integral Setup <==

  ==> DFJK: Density-Fitted J/K Matrices <==

    J tasked:                  Yes
    K tasked:                  Yes
    wK tasked:                  No
    OpenMP threads:              4
    Integrals threads:           4
    Memory (MB):               375
    Algorithm:                Core
    Integral Cache:           NONE
    Schwarz Cutoff:          1E-12
    Fitting Condition:       1E-12

   => Auxiliary Basis Set <=

  Basis Set: DEF2-TZVPP-JKFIT
    Blend: DEF2-TZVPP-JKFIT
    Number of shells: 118
    Number of basis function: 358
    Number of Cartesian functions: 424
    Spherical Harmonics?: true
    Max angular momentum: 4

  Minimum eigenvalue in the overlap matrix is 7.4505979231E-05.
  Using Symmetric Orthogonalization.

  SCF Guess: Superposition of Atomic Densities via on-the-fly atomic UHF.

  ==> Iterations <==

                           Total Energy        Delta E     RMS |[F,P]|

   @DF-RHF iter   0:  -232.49757639878624   -2.32498e+02   5.37300e-02
   @DF-RHF iter   1:  -227.13421890077950    5.36336e+00   8.99182e-03
   @DF-RHF iter   2:  -227.25891180165229   -1.24693e-01   5.07104e-03 DIIS
   @DF-RHF iter   3:  -227.30119253907952   -4.22807e-02   1.40439e-03 DIIS
   @DF-RHF iter   4:  -227.30541456314728   -4.22202e-03   5.11605e-04 DIIS
   @DF-RHF iter   5:  -227.30622925034663   -8.14687e-04   1.39770e-04 DIIS
   @DF-RHF iter   6:  -227.30630294645258   -7.36961e-05   6.99737e-05 DIIS
   @DF-RHF iter   7:  -227.30631698436878   -1.40379e-05   1.76779e-05 DIIS
   @DF-RHF iter   8:  -227.30631895578131   -1.97141e-06   4.60599e-06 DIIS
   @DF-RHF iter   9:  -227.30631908423493   -1.28454e-07   1.62356e-06 DIIS
   @DF-RHF iter  10:  -227.30631910016956   -1.59346e-08   5.65745e-07 DIIS
   @DF-RHF iter  11:  -227.30631910264913   -2.47957e-09   1.96999e-07 DIIS
   @DF-RHF iter  12:  -227.30631910301051   -3.61382e-10   6.08783e-08 DIIS
   @DF-RHF iter  13:  -227.30631910304342   -3.29123e-11   1.21373e-08 DIIS
   @DF-RHF iter  14:  -227.30631910304436   -9.37916e-13   3.63667e-09 DIIS

  ==> Post-Iterations <==

    Orbital Energies (a.u.)
    -----------------------

    Doubly Occupied:

       1A    -20.290912     2A    -20.287052     3A    -11.140982
       4A    -11.055191     5A     -1.153505     6A     -1.055448
       7A     -0.792219     8A     -0.512291     9A     -0.415179
      10A     -0.410862    11A     -0.409018    12A     -0.357671
      13A     -0.312616    14A     -0.201557    15A     -0.194168
      16A     -0.187181

    Virtual:

      17A      0.147243    18A      0.159890    19A      0.160247
      20A      0.195062    21A      0.228911    22A      0.234678
      23A      0.235392    24A      0.242528    25A      0.244628
      26A      0.284633    27A      0.300456    28A      0.311652
      29A      0.316733    30A      0.359269    31A      0.372010
      32A      0.386211    33A      0.392855    34A      0.402698
      35A      0.424263    36A      0.438398    37A      0.447461
      38A      0.461999    39A      0.462992    40A      0.464505
      41A      0.498964    42A      0.516902    43A      0.534786
      44A      0.538617    45A      0.543399    46A      0.547656
      47A      0.557101    48A      0.565951    49A      0.569284
      50A      0.584230    51A      0.596085    52A      0.615929
      53A      0.644161    54A      0.650811    55A      0.685649
      56A      0.696030    57A      0.748182    58A      0.753529
      59A      0.779853    60A      0.847758    61A      0.876608
      62A      0.889323    63A      0.915767    64A      0.923055
      65A      0.939972    66A      0.956565    67A      0.969559
      68A      0.994990    69A      1.056034    70A      1.074263
      71A      1.090953    72A      1.106045    73A      1.133949
      74A      1.150334    75A      1.164661    76A      1.170851
      77A      1.213668    78A      1.228606    79A      1.240543
      80A      1.287713    81A      1.361402    82A      1.388382
      83A      1.389745    84A      1.447853    85A      1.470757
      86A      1.583709    87A      1.584300    88A      1.639419
      89A      1.643521    90A      1.736209    91A      1.764858
      92A      1.808899    93A      1.828239    94A      1.883798
      95A      1.891217    96A      1.962855    97A      2.011912
      98A      2.037975    99A      2.062608   100A      2.257534
     101A      2.296135   102A      2.455255   103A      2.474352
     104A      2.550851   105A      2.616682   106A      2.746564
     107A      2.777948   108A      2.839875   109A      2.905604
     110A      2.910121   111A      2.964789   112A      3.024551
     113A      3.123713   114A      3.178995   115A      3.475520
     116A      3.515759   117A      3.672921   118A      3.758713
     119A      3.894959   120A     22.914302   121A     23.179937
     122A     44.487062   123A     44.537429

    Final Occupation by Irrep:
              A
    DOCC [    16 ]

  Energy converged.

  @DF-RHF Final Energy:  -227.30631910304436 with -0.000800 0.000000 0.000000 perturbation

   => Energetics <=

    Nuclear Repulsion Energy =            111.1216090841825519
    One-Electron Energy =                -539.3041492968077364
    Two-Electron Energy =                 200.8762211095808539
    DFT Exchange-Correlation Energy =       0.0000000000000000
    Empirical Dispersion Energy =           0.0000000000000000
    PCM Polarization Energy =               0.0000000000000000
    EFP Energy =                            0.0000000000000000
    Total Energy =                       -227.3063191030443591

Properties will be evaluated at   0.000000,   0.000000,   0.000000 Bohr

Properties computed using the SCF density matrix

  Nuclear Dipole Moment: (a.u.)
     X:     2.2256      Y:     4.5688      Z:    -0.0042

  Electronic Dipole Moment: (a.u.)
     X:    -1.5558      Y:    -3.2004      Z:     0.0013

  Dipole Moment: (a.u.)
     X:     0.6698      Y:     1.3684      Z:    -0.0029     Total:     1.5235

  Dipole Moment: (Debye)
     X:     1.7025      Y:     3.4781      Z:    -0.0073     Total:     3.8724

*** tstop() called on rho at Thu May 16 14:28:29 2019
Module time:
	user time   =       4.75 seconds =       0.08 minutes
	system time =       0.13 seconds =       0.00 minutes
	total time  =          1 seconds =       0.02 minutes
Total time:
	user time   =      21.88 seconds =       0.36 minutes
	system time =       0.68 seconds =       0.01 minutes
	total time  =          6 seconds =       0.10 minutes

  //>>>>>>>>>>>>>>>>>>>>>>>>>>>>>>>>>>>//
  //               DFMP2               //
  //<<<<<<<<<<<<<<<<<<<<<<<<<<<<<<<<<<<//

   => Loading Basis Set <=

    Name: DEF2-TZVPPD-RI
    Role: RIFIT
    Keyword: DF_BASIS_MP2
    atoms 1-2 entry C          line   222 file /home/esther/psi4conda/share/psi4/basis/def2-tzvppd-ri.gbs
    atoms 3-5 entry H          line    21 file /home/esther/psi4conda/share/psi4/basis/def2-tzvppd-ri.gbs
    atoms 6-7 entry O          line   332 file /home/esther/psi4conda/share/psi4/basis/def2-tzvppd-ri.gbs

	 --------------------------------------------------------
	                          DF-MP2
	      2nd-Order Density-Fitted Moller-Plesset Theory
	              RMP2 Wavefunction,   4 Threads

	        Rob Parrish, Justin Turney, Andy Simmonett,
	           Ed Hohenstein, and C. David Sherrill
	 --------------------------------------------------------

   => Auxiliary Basis Set <=

  Basis Set: DEF2-TZVPPD-RI
    Blend: DEF2-TZVPPD-RI
    Number of shells: 143
    Number of basis function: 485
    Number of Cartesian functions: 595
    Spherical Harmonics?: true
    Max angular momentum: 4

	 --------------------------------------------------------
	                 NBF =   123, NAUX =   485
	 --------------------------------------------------------
	   CLASS    FOCC     OCC    AOCC    AVIR     VIR    FVIR
	   PAIRS       0      16      16     107     107       0
	 --------------------------------------------------------

         ------------------------------------------------------------
                                     CPHF
                                  Rob Parrish
         ------------------------------------------------------------

  ==> Geometry <==

    Molecular point group: c1
    Full point group: C1

    Geometry (in Angstrom), charge = -1, multiplicity = 1:

       Center              X                  Y                   Z               Mass
    ------------   -----------------  -----------------  -----------------  -----------------
           C          0.613146075611     1.296817574710    -0.001408652073    12.000000000000
           C         -0.054498764942    -0.101727893662    -0.001088564526    12.000000000000
           H         -0.135232499598     2.094735817787    -0.000936517573     1.007825032070
           H          1.255589748430     1.392531005997    -0.884205440087     1.007825032070
           H          1.256637717162     1.392473067087     0.880634402951     1.007825032070
           O         -1.324128058114    -0.123476765848     0.001602292852    15.994914619560
           O          0.755237071679    -1.080593442882     0.000555231991    15.994914619560

  Nuclear repulsion =  111.123389585563814
  Reference energy  = -227.306319103044359

  ==> Basis Set <==

  Basis Set: SADLEJ
    Blend: SADLEJ
    Number of shells: 55
    Number of basis function: 123
    Number of Cartesian functions: 131
    Spherical Harmonics?: true
    Max angular momentum: 2

  ==> CGRSolver (by Rob Parrish) <==

   Number of roots    =         1
   Preconditioning    =    JACOBI
   Convergence cutoff =     1E-06
   Maximum iterations =       100

  ==> CPHFRHamiltonian (by Rob Parrish) <==

  ==> DFJK: Density-Fitted J/K Matrices <==

    J tasked:                  Yes
    K tasked:                  Yes
    wK tasked:                  No
    OpenMP threads:              4
    Integrals threads:           4
    Memory (MB):               375
    Algorithm:                Core
    Integral Cache:           NONE
    Schwarz Cutoff:          1E-12
    Fitting Condition:       1E-12

   => Auxiliary Basis Set <=

  Basis Set: DEF2-TZVPP-JKFIT
    Blend: DEF2-TZVPP-JKFIT
    Number of shells: 118
    Number of basis function: 358
    Number of Cartesian functions: 424
    Spherical Harmonics?: true
    Max angular momentum: 4

  ==> CPHF Iterations <==

  => Iterations <=

             Iter  Converged  Remaining    Residual
  CGR           1          0          1   1.637E-01
  CGR           2          0          1   3.117E-02
  CGR           3          0          1   7.503E-03
  CGR           4          0          1   2.822E-03
  CGR           5          0          1   6.412E-04
  CGR           6          0          1   1.671E-04
  CGR           7          0          1   6.323E-05
  CGR           8          0          1   1.673E-05
  CGR           9          0          1   6.220E-06
  CGR          10          0          1   1.458E-06
  CGR          11          1          0   3.538E-07

    CGRSolver converged.

  ==> DFCorrGrad: Density-Fitted Correlated Gradients <==

    OpenMP threads:              4
    Integrals threads:           4
    Memory (MB):               375
    Schwarz Cutoff:          0E+00
    Fitting Condition:       1E-12

   => Auxiliary Basis Set <=

  Basis Set: DEF2-TZVPP-JKFIT
    Blend: DEF2-TZVPP-JKFIT
    Number of shells: 118
    Number of basis function: 358
    Number of Cartesian functions: 424
    Spherical Harmonics?: true
    Max angular momentum: 4

	-----------------------------------------------------------
	 ==================> DF-MP2 Energies <====================
	-----------------------------------------------------------
	 Reference Energy          =    -227.3063191030443591 [Eh]
	 Singles Energy            =      -0.0000000000000084 [Eh]
	 Same-Spin Energy          =      -0.1870650572516084 [Eh]
	 Opposite-Spin Energy      =      -0.5540646490538378 [Eh]
	 Correlation Energy        =      -0.7411297063054546 [Eh]
	 Total Energy              =    -228.0474488093498167 [Eh]
	-----------------------------------------------------------
	 ================> DF-SCS-MP2 Energies <==================

  @DF-RHF Final Energy:  -227.30471567805915 with 0.000000 0.000800 0.000000 perturbation
    Total Energy =                       -227.3047156780591536
  @DF-RHF Final Energy:  -227.30690542810660 with 0.000000 -0.000800 0.000000 perturbation
    Total Energy =                       -227.3069054281066030
  @DF-RHF Final Energy:  -227.30580937390943 with 0.000000 0.000000 0.000800 perturbation
    Total Energy =                       -227.3058093739094261
    Molecular point group: c1
  Charge       = -1
  Multiplicity = 1
  Basis Set: SADLEJ
    Blend: SADLEJ
  Basis Set: DEF2-TZVPP-JKFIT
    Blend: DEF2-TZVPP-JKFIT

    Orbital Energies (a.u.)
    -----------------------

    Doubly Occupied:

       1A    -20.290352     2A    -20.287419     3A    -11.141035
       4A    -11.055954     5A     -1.153405     6A     -1.055353
       7A     -0.792882     8A     -0.512461     9A     -0.415468
      10A     -0.410896    11A     -0.409692    12A     -0.357926
      13A     -0.312755    14A     -0.201368    15A     -0.194280
      16A     -0.186999

  @DF-RHF Final Energy:  -227.30580479137737 with 0.000000 0.000000 -0.000800 perturbation

   => Energetics <=

    Nuclear Repulsion Energy =            111.1233929578262973
    One-Electron Energy =                -539.3019062874082010
    Two-Electron Energy =                 200.8727085382045345
    DFT Exchange-Correlation Energy =       0.0000000000000000
    Empirical Dispersion Energy =           0.0000000000000000
    PCM Polarization Energy =               0.0000000000000000
    EFP Energy =                            0.0000000000000000
    Total Energy =                       -227.3058047913773692
  Basis Set: DEF2-TZVPPD-RI
    Blend: DEF2-TZVPPD-RI
    Molecular point group: c1

    Geometry (in Angstrom), charge = -1, multiplicity = 1:

       Center              X                  Y                   Z               Mass
    ------------   -----------------  -----------------  -----------------  -----------------
           C          0.613146075611     1.296817574710    -0.001408652073    12.000000000000
           C         -0.054498764942    -0.101727893662    -0.001088564526    12.000000000000
           H         -0.135232499598     2.094735817787    -0.000936517573     1.007825032070
           H          1.255589748430     1.392531005997    -0.884205440087     1.007825032070
           H          1.256637717162     1.392473067087     0.880634402951     1.007825032070
           O         -1.324128058114    -0.123476765848     0.001602292852    15.994914619560
           O          0.755237071679    -1.080593442882     0.000555231991    15.994914619560

  Basis Set: SADLEJ
    Blend: SADLEJ
  Basis Set: DEF2-TZVPP-JKFIT
    Blend: DEF2-TZVPP-JKFIT
  Basis Set: DEF2-TZVPP-JKFIT
    Blend: DEF2-TZVPP-JKFIT
	 Reference Energy          =    -227.3058047913773692 [Eh]
	 Singles Energy            =      -0.0000000000000087 [Eh]
	 Same-Spin Energy          =      -0.1870862949121392 [Eh]
	 Opposite-Spin Energy      =      -0.5541117449105788 [Eh]
	 Correlation Energy        =      -0.7411980398227266 [Eh]
	 Total Energy              =    -228.0470028312001034 [Eh]

	 ================> DF-SCS-MP2 Energies <==================
	-----------------------------------------------------------
	 SCS Same-Spin Scale       =       0.3333333333333333 [-]
	 SCS Opposite-Spin Scale   =       1.2000000000000000 [-]
	 SCS Same-Spin Energy      =      -0.0623620983040464 [Eh]
	 SCS Opposite-Spin Energy  =      -0.6649340938926945 [Eh]
	 SCS Correlation Energy    =      -0.7272961921967496 [Eh]
	 SCS Total Energy          =    -228.0331009835741156 [Eh]
	-----------------------------------------------------------

  -Total Gradient:
     Atom            X                  Y                   Z
    ------   -----------------  -----------------  -----------------
       1        0.003663308272     0.003796780710    -0.000003174024
       2        0.000551518396     0.003387623891    -0.000556104154
       3        0.003143772509    -0.004172356199    -0.000029241570
       4       -0.003547957153    -0.000543144993     0.004477622609
       5       -0.003370896442    -0.000513048848    -0.004293655603
       6       -0.002374710703     0.000026974462     0.000598058719
       7        0.001934965120    -0.001982829023     0.000606494023

*** Psi4 exiting successfully. Buy a developer a beer!
