 Gaussian 09, Revision D.01,
 Gaussian 09:  ES64L-G09RevD.01 24-Apr-2013

 ------------------------------------------
 #p M062X/Gen SCF=(MAXCYCLE=1000) field=x-8
 ------------------------------------------

 -----
 polar
 -----
 Symbolic Z-matrix:
 Charge = -1 Multiplicity = 1

                         Standard orientation:
 ---------------------------------------------------------------------
 Center     Atomic      Atomic             Coordinates (Angstroms)
 Number     Number       Type             X           Y           Z
 ---------------------------------------------------------------------
      1          6           0       -1.346377   -0.060108    0.000151
      2          6           0        0.202110    0.002068   -0.001243
      3          1           0       -1.702832   -1.094362    0.000614
      4          1           0       -1.731829    0.463772   -0.882006
      5          1           0       -1.730286    0.464027    0.882833
      6          8           0        0.813848   -1.110682    0.000321
      7          8           0        0.689970    1.175032    0.000318
 ---------------------------------------------------------------------

 SCF Done:  E(RM062X) =  -228.497026257     A.U. after   13 cycles

 The electronic state is 1-A.
 Alpha  occ. eigenvalues --  -19.37624 -19.37396 -10.44059 -10.36920  -0.93373
 Alpha  occ. eigenvalues --   -0.84398  -0.62849  -0.38889  -0.31911  -0.31314
 Alpha  occ. eigenvalues --   -0.30341  -0.25974  -0.23163  -0.11340  -0.10828
 Alpha  occ. eigenvalues --   -0.10739
 Alpha virt. eigenvalues --    0.10555   0.11923   0.12344   0.15445   0.18414
 Alpha virt. eigenvalues --    0.18955   0.19274   0.19802   0.19972   0.23871
 Alpha virt. eigenvalues --    0.24559   0.25442   0.26207   0.28379   0.30494

 Mulliken charges:
               1
     1  C    3.209941
     2  C   -0.971492
     3  H   -0.850721
     4  H   -0.818932
     5  H   -0.818556
     6  O   -0.345911
     7  O   -0.404329
 Sum of Mulliken charges =  -1.00000

 Dipole moment (field-independent basis, Debye):
    X=             -3.7655    Y=             -0.1919    Z=             -0.0021  Tot=              3.7704
 Quadrupole moment (field-independent basis, Debye-Ang):
   XX=            -32.6759   YY=            -36.4402   ZZ=            -25.8890
   XY=              0.2027   XZ=             -0.0029   YZ=              0.0003

 Normal termination of Gaussian 09 at Wed May 15 16:25:15 2019.
