 Gaussian 09, Revision D.01,
 Gaussian 09:  ES64L-G09RevD.01 24-Apr-2013

 ------------------------------------------
 #p M062X/Gen SCF=(MAXCYCLE=1000) field=y-8
 ------------------------------------------

 -----
 polar
 -----
 Symbolic Z-matrix:
 Charge = -1 Multiplicity = 1

                         Standard orientation:
 ---------------------------------------------------------------------
 Center     Atomic      Atomic             Coordinates (Angstroms)
 Number     Number       Type             X           Y           Z
 ---------------------------------------------------------------------
      1          6           0       -1.346377   -0.060108    0.000151
      2          6           0        0.202110    0.002068   -0.001243
      3          1           0       -1.702832   -1.094362    0.000614
      4          1           0       -1.731829    0.463772   -0.882006
      5          1           0       -1.730286    0.464027    0.882833
      6          8           0        0.813848   -1.110682    0.000321
      7          8           0        0.689970    1.175032    0.000318
 ---------------------------------------------------------------------

 SCF Done:  E(RM062X) =  -228.498182810     A.U. after   13 cycles

 The electronic state is 1-A.
 Alpha  occ. eigenvalues --  -19.37701 -19.37377 -10.44059 -10.36769  -0.93402
 Alpha  occ. eigenvalues --   -0.84427  -0.62716  -0.38855  -0.31794  -0.31234
 Alpha  occ. eigenvalues --   -0.30339  -0.25953  -0.23134  -0.11384  -0.10885
 Alpha  occ. eigenvalues --   -0.10723
 Alpha virt. eigenvalues --    0.10928   0.12351   0.12563   0.15501   0.18637
 Alpha virt. eigenvalues --    0.19101   0.19113   0.19709   0.19932   0.23808
 Alpha virt. eigenvalues --    0.24806   0.25793   0.26417   0.28386   0.30512

 Mulliken charges:
               1
     1  C    3.202152
     2  C   -0.972486
     3  H   -0.853488
     4  H   -0.811725
     5  H   -0.811362
     6  O   -0.350859
     7  O   -0.402232
 Sum of Mulliken charges =  -1.00000

 Dipole moment (field-independent basis, Debye):
    X=             -3.8674    Y=             -0.0920    Z=             -0.0021  Tot=              3.8685
 Quadrupole moment (field-independent basis, Debye-Ang):
   XX=            -32.6137   YY=            -36.4525   ZZ=            -25.8755
   XY=              0.2001   XZ=             -0.0029   YZ=              0.0003

 Normal termination of Gaussian 09 at Wed May 15 16:25:05 2019.
