 Gaussian 09, Revision D.01,
 Gaussian 09:  ES64L-G09RevD.01 24-Apr-2013

 ------------------------------------------
 #p M062X/Gen SCF=(MAXCYCLE=1000) field=z-8
 ------------------------------------------

 -----
 polar
 -----
 Symbolic Z-matrix:
 Charge = -1 Multiplicity = 1

                         Standard orientation:
 ---------------------------------------------------------------------
 Center     Atomic      Atomic             Coordinates (Angstroms)
 Number     Number       Type             X           Y           Z
 ---------------------------------------------------------------------
      1          6           0       -1.346377   -0.060108    0.000151
      2          6           0        0.202110    0.002068   -0.001243
      3          1           0       -1.702832   -1.094362    0.000614
      4          1           0       -1.731829    0.463772   -0.882006
      5          1           0       -1.730286    0.464027    0.882833
      6          8           0        0.813848   -1.110682    0.000321
      7          8           0        0.689970    1.175032    0.000318
 ---------------------------------------------------------------------

 SCF Done:  E(RM062X) =  -228.498237506     A.U. after   13 cycles

 The electronic state is 1-A.
 Alpha  occ. eigenvalues --  -19.37658 -19.37426 -10.44060 -10.36764  -0.93403
 Alpha  occ. eigenvalues --   -0.84430  -0.62712  -0.38854  -0.31801  -0.31222
 Alpha  occ. eigenvalues --   -0.30336  -0.25950  -0.23137  -0.11389  -0.10846
 Alpha  occ. eigenvalues --   -0.10767
 Alpha virt. eigenvalues --    0.10883   0.12286   0.12693   0.15496   0.18564
 Alpha virt. eigenvalues --    0.19144   0.19214   0.19747   0.19809   0.23774
 Alpha virt. eigenvalues --    0.24775   0.25763   0.26509   0.28400   0.30519

 Mulliken charges:
               1
     1  C    3.203023
     2  C   -0.972802
     3  H   -0.847919
     4  H   -0.820034
     5  H   -0.809173
     6  O   -0.347658
     7  O   -0.405439
 Sum of Mulliken charges =  -1.00000

 Dipole moment (field-independent basis, Debye):
    X=             -3.8666    Y=             -0.1911    Z=              0.0666  Tot=              3.8719
 Quadrupole moment (field-independent basis, Debye-Ang):
   XX=            -32.6110   YY=            -36.4480   ZZ=            -25.8820
   XY=              0.2045   XZ=             -0.0300   YZ=              0.0054

 Normal termination of Gaussian 09 at Wed May 15 16:24:54 2019.
