 Gaussian 09, Revision D.01,
 Gaussian 09:  ES64L-G09RevD.01 24-Apr-2013

 ------------------------------------------
 #p M062X/Gen SCF=(MAXCYCLE=1000) field=x+8
 ------------------------------------------

 -----
 polar
 -----
 Symbolic Z-matrix:
 Charge = -1 Multiplicity = 1

                         Standard orientation:
 ---------------------------------------------------------------------
 Center     Atomic      Atomic             Coordinates (Angstroms)
 Number     Number       Type             X           Y           Z
 ---------------------------------------------------------------------
      1          6           0       -1.346377   -0.060108    0.000151
      2          6           0        0.202110    0.002068   -0.001243
      3          1           0       -1.702832   -1.094362    0.000614
      4          1           0       -1.731829    0.463772   -0.882006
      5          1           0       -1.730286    0.464027    0.882833
      6          8           0        0.813848   -1.110682    0.000321
      7          8           0        0.689970    1.175032    0.000318
 ---------------------------------------------------------------------

 SCF Done:  E(RM062X) =  -228.499460221     A.U. after   12 cycles

 The electronic state is 1-A.
 Alpha  occ. eigenvalues --  -19.37694 -19.37457 -10.44062 -10.36608  -0.93434
 Alpha  occ. eigenvalues --   -0.84464  -0.62576  -0.38821  -0.31694  -0.31135
 Alpha  occ. eigenvalues --   -0.30331  -0.25923  -0.23109  -0.11439  -0.10867
 Alpha  occ. eigenvalues --   -0.10795
 Alpha virt. eigenvalues --    0.11354   0.12574   0.13058   0.15540   0.18667
 Alpha virt. eigenvalues --    0.19166   0.19391   0.19626   0.19711   0.23725
 Alpha virt. eigenvalues --    0.25105   0.25984   0.26790   0.28416   0.30553

 Mulliken charges:
               1
     1  C    3.196146
     2  C   -0.974019
     3  H   -0.844990
     4  H   -0.810696
     5  H   -0.810340
     6  O   -0.349452
     7  O   -0.406648
 Sum of Mulliken charges =  -1.00000

 Dipole moment (field-independent basis, Debye):
    X=             -3.9673    Y=             -0.1902    Z=             -0.0021  Tot=              3.9718
 Quadrupole moment (field-independent basis, Debye-Ang):
   XX=            -32.5501   YY=            -36.4556   ZZ=            -25.8744
   XY=              0.2063   XZ=             -0.0029   YZ=              0.0003

 Normal termination of Gaussian 09 at Wed May 15 16:10:20 2019.
