 Gaussian 09, Revision D.01,
 Gaussian 09:  ES64L-G09RevD.01 24-Apr-2013

 ------------------------------------------
 #p M062X/Gen SCF=(MAXCYCLE=1000) field=y+8
 ------------------------------------------

 -----
 polar
 -----
 Symbolic Z-matrix:
 Charge = -1 Multiplicity = 1

                         Standard orientation:
 ---------------------------------------------------------------------
 Center     Atomic      Atomic             Coordinates (Angstroms)
 Number     Number       Type             X           Y           Z
 ---------------------------------------------------------------------
      1          6           0       -1.346377   -0.060108    0.000151
      2          6           0        0.202110    0.002068   -0.001243
      3          1           0       -1.702832   -1.094362    0.000614
      4          1           0       -1.731829    0.463772   -0.882006
      5          1           0       -1.730286    0.464027    0.882833
      6          8           0        0.813848   -1.110682    0.000321
      7          8           0        0.689970    1.175032    0.000318
 ---------------------------------------------------------------------

 SCF Done:  E(RM062X) =  -228.498303085     A.U. after   13 cycles

 The electronic state is 1-A.
 Alpha  occ. eigenvalues --  -19.37616 -19.37475 -10.44061 -10.36759  -0.93406
 Alpha  occ. eigenvalues --   -0.84434  -0.62708  -0.38853  -0.31809  -0.31212
 Alpha  occ. eigenvalues --   -0.30333  -0.25946  -0.23140  -0.11394  -0.10836
 Alpha  occ. eigenvalues --   -0.10783
 Alpha virt. eigenvalues --    0.10915   0.12129   0.12934   0.15505   0.18528
 Alpha virt. eigenvalues --    0.19194   0.19267   0.19682   0.19779   0.23800
 Alpha virt. eigenvalues --    0.24823   0.25636   0.26621   0.28406   0.30531

 Mulliken charges:
               1
     1  C    3.203896
     2  C   -0.973054
     3  H   -0.842268
     4  H   -0.817867
     5  H   -0.817500
     6  O   -0.344506
     7  O   -0.408700
 Sum of Mulliken charges =  -1.00000

 Dipole moment (field-independent basis, Debye):
    X=             -3.8657    Y=             -0.2901    Z=             -0.0021  Tot=              3.8766
 Quadrupole moment (field-independent basis, Debye-Ang):
   XX=            -32.6084   YY=            -36.4448   ZZ=            -25.8877
   XY=              0.2090   XZ=             -0.0029   YZ=              0.0003

 Normal termination of Gaussian 09 at Wed May 15 16:10:46 2019.
