 Gaussian 09, Revision D.01,
 Gaussian 09:  ES64L-G09RevD.01 24-Apr-2013

 ------------------------------------------
 #p M062X/Gen SCF=(MAXCYCLE=1000) field=z+8
 ------------------------------------------

 -----
 polar
 -----
 Symbolic Z-matrix:
 Charge = -1 Multiplicity = 1

                         Standard orientation:
 ---------------------------------------------------------------------
 Center     Atomic      Atomic             Coordinates (Angstroms)
 Number     Number       Type             X           Y           Z
 ---------------------------------------------------------------------
      1          6           0       -1.346377   -0.060108    0.000151
      2          6           0        0.202110    0.002068   -0.001243
      3          1           0       -1.702832   -1.094362    0.000614
      4          1           0       -1.731829    0.463772   -0.882006
      5          1           0       -1.730286    0.464027    0.882833
      6          8           0        0.813848   -1.110682    0.000321
      7          8           0        0.689970    1.175032    0.000318
 ---------------------------------------------------------------------

 SCF Done:  E(RM062X) =  -228.498238828     A.U. after   13 cycles

 The electronic state is 1-A.
 Alpha  occ. eigenvalues --  -19.37658 -19.37425 -10.44060 -10.36764  -0.93403
 Alpha  occ. eigenvalues --   -0.84430  -0.62712  -0.38854  -0.31801  -0.31222
 Alpha  occ. eigenvalues --   -0.30336  -0.25950  -0.23137  -0.11389  -0.10846
 Alpha  occ. eigenvalues --   -0.10767
 Alpha virt. eigenvalues --    0.10883   0.12284   0.12693   0.15497   0.18563
 Alpha virt. eigenvalues --    0.19143   0.19217   0.19748   0.19808   0.23774
 Alpha virt. eigenvalues --    0.24774   0.25764   0.26508   0.28399   0.30521

 Mulliken charges:
               1
     1  C    3.203014
     2  C   -0.972771
     3  H   -0.847932
     4  H   -0.809535
     5  H   -0.819663
     6  O   -0.347667
     7  O   -0.405445
 Sum of Mulliken charges =  -1.00000

 Dipole moment (field-independent basis, Debye):
    X=             -3.8666    Y=             -0.1911    Z=             -0.0708  Tot=              3.8720
 Quadrupole moment (field-independent basis, Debye-Ang):
   XX=            -32.6110   YY=            -36.4480   ZZ=            -25.8819
   XY=              0.2045   XZ=              0.0242   YZ=             -0.0048

 Normal termination of Gaussian 09 at Wed May 15 16:21:31 2019.
